98
Properties=species:S:1:pos:R:3:REF_forces:R:3:forces:R:3 REF_energy=-34256.168964713645 REF_dipole="7.83320760254578e-08 1.581294356108855e-06 2.077838191055041e-07" external_field="0.0 0.0 0.0" config_type=Linear_alkane energy=-34256.168964713645 free_energy=-34256.168964713645 dipole="3.7624499671089104e-07 7.595280503222812e-06 9.980282191234044e-07" pbc="F F F"
C        0.00000000      -0.44456000     -19.48977300      -0.00007271       0.87906929       0.60888181      -0.00007271       0.87906929       0.60888181
C        0.00000000       0.44456000     -18.23236900       0.00005872      -1.66795059      -0.19153712       0.00005872      -1.66795059      -0.19153712
C        0.00000000      -0.44456000     -16.97496400      -0.00001969       1.96734514      -0.05475375      -0.00001969       1.96734514      -0.05475375
C        0.00000000       0.44456000     -15.71755900       0.00005903      -1.97606421      -0.01230093       0.00005903      -1.97606421      -0.01230093
C        0.00000000      -0.44456000     -14.46015400       0.00006788       1.98637305      -0.00465467       0.00006788       1.98637305      -0.00465467
C        0.00000000       0.44456000     -13.20275000       0.00000740      -1.99098700      -0.00209303       0.00000740      -1.99098700      -0.00209303
C        0.00000000      -0.44456000     -11.94534500      -0.00015077       1.99273499      -0.00121289      -0.00015077       1.99273499      -0.00121289
C        0.00000000       0.44456000     -10.68794000      -0.00008150      -1.99366815      -0.00048887      -0.00008150      -1.99366815      -0.00048887
C        0.00000000      -0.44456000      -9.43053600      -0.00000118       1.99370810      -0.00020744      -0.00000118       1.99370810      -0.00020744
C        0.00000000       0.44456000      -8.17313100       0.00020430      -1.99398306       0.00013524       0.00020430      -1.99398306       0.00013524
C        0.00000000      -0.44456000      -6.91572600      -0.00017334       1.99446262      -0.00050795      -0.00017334       1.99446262      -0.00050795
C        0.00000000       0.44456000      -5.65832100       0.00013606      -1.99424618       0.00000391       0.00013606      -1.99424618       0.00000391
C        0.00000000      -0.44456000      -4.40091700       0.00006803       1.99427472      -0.00027161       0.00006803       1.99427472      -0.00027161
C        0.00000000       0.44456000      -3.14351200      -0.00018455      -1.99422382      -0.00033764      -0.00018455      -1.99422382      -0.00033764
C        0.00000000      -0.44456000      -1.88610700       0.00023407       1.99405371       0.00013128       0.00023407       1.99405371       0.00013128
C        0.00000000       0.44456000      -0.62870200       0.00001507      -1.99426156       0.00019386       0.00001507      -1.99426156       0.00019386
C        0.00000000      -0.44456000       0.62870200      -0.00001126       1.99439078      -0.00015380      -0.00001126       1.99439078      -0.00015380
C        0.00000000       0.44456000       1.88610700       0.00003348      -1.99430887       0.00034494       0.00003348      -1.99430887       0.00034494
C        0.00000000      -0.44456000       3.14351200      -0.00012424       1.99417291      -0.00029938      -0.00012424       1.99417291      -0.00029938
C        0.00000000       0.44456000       4.40091700       0.00004222      -1.99422690       0.00007251       0.00004222      -1.99422690       0.00007251
C        0.00000000      -0.44456000       5.65832100       0.00019679       1.99436636       0.00015720       0.00019679       1.99436636       0.00015720
C        0.00000000       0.44456000       6.91572600      -0.00017304      -1.99441454      -0.00004674      -0.00017304      -1.99441454      -0.00004674
C        0.00000000      -0.44456000       8.17313100       0.00000072       1.99388592       0.00005692       0.00000072       1.99388592       0.00005692
C        0.00000000       0.44456000       9.43053600      -0.00012166      -1.99384211       0.00033460      -0.00012166      -1.99384211       0.00033460
C        0.00000000      -0.44456000      10.68794000       0.00003754       1.99330912       0.00055176       0.00003754       1.99330912       0.00055176
C        0.00000000       0.44456000      11.94534500      -0.00012850      -1.99262747       0.00115453      -0.00012850      -1.99262747       0.00115453
C        0.00000000      -0.44456000      13.20275000       0.00012753       1.99086359       0.00203467       0.00012753       1.99086359       0.00203467
C        0.00000000       0.44456000      14.46015400      -0.00015170      -1.98628672       0.00478369      -0.00015170      -1.98628672       0.00478369
C        0.00000000      -0.44456000      15.71755900       0.00006927       1.97599053       0.01221665       0.00006927       1.97599053       0.01221665
C        0.00000000       0.44456000      16.97496400      -0.00017725      -1.96724718       0.05467544      -0.00017725      -1.96724718       0.05467544
C        0.00000000      -0.44456000      18.23236900       0.00024611       1.66794622       0.19168393       0.00024611       1.66794622       0.19168393
C        0.00000000       0.44456000      19.48977300      -0.00018543      -0.87897462      -0.60890448      -0.00018543      -0.87897462      -0.60890448
H        0.00000000       0.17897900     -20.37159000       0.00001532       0.00671305      -0.44800278       0.00001532       0.00671305      -0.44800278
H       -0.88181600      -1.06809800     -19.48977300      -0.24825623      -0.27445541      -0.12520667      -0.24825623      -0.27445541      -0.12520667
H        0.88181600      -1.06809800     -19.48977300       0.24825263      -0.27445135      -0.12519726       0.24825263      -0.27445135      -0.12519726
H       -0.88181600       1.06809800     -18.23236900      -0.24928935       0.35857276       0.04089983      -0.24928935       0.35857276       0.04089983
H        0.88181600       1.06809800     -18.23236900       0.24929593       0.35858423       0.04090507       0.24929593       0.35858423       0.04090507
H        0.88181600      -1.06809800     -16.97496400       0.28303014      -0.36340324      -0.00488479       0.28303014      -0.36340324      -0.00488479
H       -0.88181600      -1.06809800     -16.97496400      -0.28304362      -0.36341955      -0.00487373      -0.28304362      -0.36341955      -0.00487373
H       -0.88181600       1.06809800     -15.71755900      -0.27933079       0.35946668       0.00066751      -0.27933079       0.35946668       0.00066751
H        0.88181600       1.06809800     -15.71755900       0.27927114       0.35941130       0.00069970       0.27927114       0.35941130       0.00069970
H        0.88181600      -1.06809800     -14.46015400       0.28058754      -0.36065144       0.00080614       0.28058754      -0.36065144       0.00080614
H       -0.88181600      -1.06809800     -14.46015400      -0.28057129      -0.36064939       0.00078439      -0.28057129      -0.36064939       0.00078439
H       -0.88181600       1.06809800     -13.20275000      -0.28090302       0.36062861       0.00016337      -0.28090302       0.36062861       0.00016337
H        0.88181600       1.06809800     -13.20275000       0.28084527       0.36062018       0.00020769       0.28084527       0.36062018       0.00020769
H        0.88181600      -1.06809800     -11.94534500       0.28097285      -0.36081440       0.00012830       0.28097285      -0.36081440       0.00012830
H       -0.88181600      -1.06809800     -11.94534500      -0.28093999      -0.36081003       0.00011143      -0.28093999      -0.36081003       0.00011143
H       -0.88181600       1.06809800     -10.68794000      -0.28101784       0.36077049       0.00011935      -0.28101784       0.36077049       0.00011935
H        0.88181600       1.06809800     -10.68794000       0.28097727       0.36081080       0.00011159       0.28097727       0.36081080       0.00011159
H        0.88181600      -1.06809800      -9.43053600       0.28100231      -0.36077928       0.00005620       0.28100231      -0.36077928       0.00005620
H       -0.88181600      -1.06809800      -9.43053600      -0.28105332      -0.36078365       0.00004422      -0.28105332      -0.36078365       0.00004422
H       -0.88181600       1.06809800      -8.17313100      -0.28103733       0.36084597      -0.00002489      -0.28103733       0.36084597      -0.00002489
H        0.88181600       1.06809800      -8.17313100       0.28108294       0.36077373       0.00001507       0.28108294       0.36077373       0.00001507
H        0.88181600      -1.06809800      -6.91572600       0.28100812      -0.36087348       0.00001784       0.28100812      -0.36087348       0.00001784
H       -0.88181600      -1.06809800      -6.91572600      -0.28103769      -0.36087004       0.00008284      -0.28103769      -0.36087004       0.00008284
H       -0.88181600       1.06809800      -5.65832100      -0.28097681       0.36082859       0.00005466      -0.28097681       0.36082859       0.00005466
H        0.88181600       1.06809800      -5.65832100       0.28097007       0.36088711      -0.00002509       0.28097007       0.36088711      -0.00002509
H        0.88181600      -1.06809800      -4.40091700       0.28104602      -0.36080489       0.00009765       0.28104602      -0.36080489       0.00009765
H       -0.88181600      -1.06809800      -4.40091700      -0.28105199      -0.36088793       0.00003456      -0.28105199      -0.36088793       0.00003456
H       -0.88181600       1.06809800      -3.14351200      -0.28099609       0.36090840      -0.00005055      -0.28099609       0.36090840      -0.00005055
H        0.88181600       1.06809800      -3.14351200       0.28104376       0.36090326       0.00001574       0.28104376       0.36090326       0.00001574
H        0.88181600      -1.06809800      -1.88610700       0.28097347      -0.36089544       0.00007857       0.28097347      -0.36089544       0.00007857
H       -0.88181600      -1.06809800      -1.88610700      -0.28105188      -0.36086474       0.00001774      -0.28105188      -0.36086474       0.00001774
H       -0.88181600       1.06809800      -0.62870200      -0.28101990       0.36092815       0.00004541      -0.28101990       0.36092815       0.00004541
H        0.88181600       1.06809800      -0.62870200       0.28104067       0.36083775      -0.00002119       0.28104067       0.36083775      -0.00002119
H        0.88181600      -1.06809800       0.62870200       0.28100941      -0.36087822      -0.00001028       0.28100941      -0.36087822      -0.00001028
H       -0.88181600      -1.06809800       0.62870200      -0.28102828      -0.36081800       0.00002885      -0.28102828      -0.36081800       0.00002885
H       -0.88181600       1.06809800       1.88610700      -0.28108294       0.36086958      -0.00002108      -0.28108294       0.36086958      -0.00002108
H        0.88181600       1.06809800       1.88610700       0.28105425       0.36090845      -0.00001100       0.28105425       0.36090845      -0.00001100
H        0.88181600      -1.06809800       3.14351200       0.28098817      -0.36084515       0.00003970       0.28098817      -0.36084515       0.00003970
H       -0.88181600      -1.06809800       3.14351200      -0.28096709      -0.36088068       0.00000833      -0.28096709      -0.36088068       0.00000833
H       -0.88181600       1.06809800       4.40091700      -0.28104520       0.36089621      -0.00003738      -0.28104520       0.36089621      -0.00003738
H        0.88181600       1.06809800       4.40091700       0.28106757       0.36083703      -0.00002011       0.28106757       0.36083703      -0.00002011
H        0.88181600      -1.06809800       5.65832100       0.28103147      -0.36087148      -0.00002041       0.28103147      -0.36087148      -0.00002041
H       -0.88181600      -1.06809800       5.65832100      -0.28100602      -0.36076910       0.00005790      -0.28100602      -0.36076910       0.00005790
H       -0.88181600       1.06809800       6.91572600      -0.28099815       0.36088927      -0.00001661      -0.28099815       0.36088927      -0.00001661
H        0.88181600       1.06809800       6.91572600       0.28098375       0.36080530       0.00000206       0.28098375       0.36080530       0.00000206
H        0.88181600      -1.06809800       8.17313100       0.28106047      -0.36081183      -0.00003857       0.28106047      -0.36081183      -0.00003857
H       -0.88181600      -1.06809800       8.17313100      -0.28097449      -0.36081970       0.00002530      -0.28097449      -0.36081970       0.00002530
H       -0.88181600       1.06809800       9.43053600      -0.28105209       0.36080653      -0.00010871      -0.28105209       0.36080653      -0.00010871
H        0.88181600       1.06809800       9.43053600       0.28105368       0.36082700      -0.00004242       0.28105368       0.36082700      -0.00004242
H        0.88181600      -1.06809800      10.68794000       0.28102155      -0.36081857      -0.00008834       0.28102155      -0.36081857      -0.00008834
H       -0.88181600      -1.06809800      10.68794000      -0.28095495      -0.36070647      -0.00006402      -0.28095495      -0.36070647      -0.00006402
H       -0.88181600       1.06809800      11.94534500      -0.28089026       0.36081342      -0.00015884      -0.28089026       0.36081342      -0.00015884
H        0.88181600       1.06809800      11.94534500       0.28094451       0.36081260      -0.00018435       0.28094451       0.36081260      -0.00018435
H        0.88181600      -1.06809800      13.20275000       0.28087767      -0.36058583      -0.00017771       0.28087767      -0.36058583      -0.00017771
H       -0.88181600      -1.06809800      13.20275000      -0.28088456      -0.36059889      -0.00012002      -0.28088456      -0.36059889      -0.00012002
H       -0.88181600       1.06809800      14.46015400      -0.28060467       0.36061452      -0.00080121      -0.28060467       0.36061452      -0.00080121
H        0.88181600       1.06809800      14.46015400       0.28057114       0.36064491      -0.00078547       0.28057114       0.36064491      -0.00078547
H        0.88181600      -1.06809800      15.71755900       0.27936632      -0.35939824      -0.00063301       0.27936632      -0.35939824      -0.00063301
H       -0.88181600      -1.06809800      15.71755900      -0.27930677      -0.35935437      -0.00059439      -0.27930677      -0.35935437      -0.00059439
H       -0.88181600       1.06809800      16.97496400      -0.28302402       0.36337049       0.00485928      -0.28302402       0.36337049       0.00485928
H        0.88181600       1.06809800      16.97496400       0.28306136       0.36338504       0.00487337       0.28306136       0.36338504       0.00487337
H        0.88181600      -1.06809800      18.23236900       0.24925834      -0.35857631      -0.04093011       0.24925834      -0.35857631      -0.04093011
H       -0.88181600      -1.06809800      18.23236900      -0.24928287      -0.35855270      -0.04090631      -0.24928287      -0.35855270      -0.04090631
H        0.00000000      -0.17897900      20.37159000       0.00005759      -0.00672066       0.44797131       0.00005759      -0.00672066       0.44797131
H       -0.88181600       1.06809800      19.48977300      -0.24819545       0.27441252       0.12519201      -0.24819545       0.27441252       0.12519201
H        0.88181600       1.06809800      19.48977300       0.24820486       0.27440250       0.12519139       0.24820486       0.27440250       0.12519139
32
Properties=species:S:1:pos:R:3:REF_forces:R:3:forces:R:3 REF_energy=-10727.21610526495 REF_dipole="8.262877217875296e-08 -6.475892304889465e-07 -1.619523934703558e-07" external_field="0.0 0.0 0.0" config_type=Linear_alkane energy=-10727.21610526495 free_energy=-10727.21610526495 dipole="3.968829079228809e-07 -3.1105036436942586e-06 -7.778904995288464e-07" pbc="F F F"
C        0.00000000      -0.44456000      -5.65832100       0.00076737       0.87811860       0.61008123       0.00076737       0.87811860       0.61008123
C        0.00000000       0.44456000      -4.40091700      -0.00003234      -1.66595028      -0.19038938      -0.00003234      -1.66595028      -0.19038938
C        0.00000000      -0.44456000      -3.14351200      -0.00017807       1.96508067      -0.05457923      -0.00017807       1.96508067      -0.05457923
C        0.00000000       0.44456000      -1.88610700       0.00031702      -1.97353852      -0.01138325       0.00031702      -1.97353852      -0.01138325
C        0.00000000      -0.44456000      -0.62870200      -0.00008444       1.98227970      -0.00251618      -0.00008444       1.98227970      -0.00251618
C        0.00000000       0.44456000       0.62870200       0.00004973      -1.98207047       0.00316966       0.00004973      -1.98207047       0.00316966
C        0.00000000      -0.44456000       1.88610700       0.00009415       1.97378596       0.01132972       0.00009415       1.97378596       0.01132972
C        0.00000000       0.44456000       3.14351200      -0.00027285      -1.96622131       0.05382620      -0.00027285      -1.96622131       0.05382620
C        0.00000000      -0.44456000       4.40091700       0.00044156       1.66689613       0.19102830       0.00044156       1.66689613       0.19102830
C        0.00000000       0.44456000       5.65832100      -0.00048738      -0.87856371      -0.60965730      -0.00048738      -0.87856371      -0.60965730
H        0.00000000       0.17897900      -6.54013800      -0.00023299       0.00684921      -0.44792349      -0.00023299       0.00684921      -0.44792349
H       -0.88181600      -1.06809800      -5.65832100      -0.24853859      -0.27441258      -0.12547303      -0.24853859      -0.27441258      -0.12547303
H        0.88181600      -1.06809800      -5.65832100       0.24827824      -0.27437776      -0.12552353       0.24827824      -0.27437776      -0.12552353
H       -0.88181600       1.06809800      -4.40091700      -0.24969106       0.35862860       0.04056116      -0.24969106       0.35862860       0.04056116
H        0.88181600       1.06809800      -4.40091700       0.24952563       0.35884812       0.04058492       0.24952563       0.35884812       0.04058492
H        0.88181600      -1.06809800      -3.14351200       0.28311900      -0.36365331      -0.00528135       0.28311900      -0.36365331      -0.00528135
H       -0.88181600      -1.06809800      -3.14351200      -0.28328355      -0.36353062      -0.00496650      -0.28328355      -0.36353062      -0.00496650
H       -0.88181600       1.06809800      -1.88610700      -0.27961844       0.35952268       0.00060400      -0.27961844       0.35952268       0.00060400
H        0.88181600       1.06809800      -1.88610700       0.27960219       0.35967694       0.00062221       0.27960219       0.35967694       0.00062221
H        0.88181600      -1.06809800      -0.62870200       0.28087587      -0.36071336       0.00049046       0.28087587      -0.36071336       0.00049046
H       -0.88181600      -1.06809800      -0.62870200      -0.28081797      -0.36068070       0.00060894      -0.28081797      -0.36068070       0.00060894
H       -0.88181600       1.06809800       0.62870200      -0.28080784       0.36065124      -0.00065316      -0.28080784       0.36065124      -0.00065316
H        0.88181600       1.06809800       0.62870200       0.28083679       0.36068029      -0.00064833       0.28083679       0.36068029      -0.00064833
H        0.88181600      -1.06809800       1.88610700       0.27949076      -0.35957451      -0.00065815       0.27949076      -0.35957451      -0.00065815
H       -0.88181600      -1.06809800       1.88610700      -0.27949513      -0.35962892      -0.00060863      -0.27949513      -0.35962892      -0.00060863
H       -0.88181600       1.06809800       3.14351200      -0.28309956       0.36341266       0.00510266      -0.28309956       0.36341266       0.00510266
H        0.88181600       1.06809800       3.14351200       0.28304999       0.36354378       0.00492845       0.28304999       0.36354378       0.00492845
H        0.88181600      -1.06809800       4.40091700       0.24923998      -0.35841052      -0.04065768       0.24923998      -0.35841052      -0.04065768
H       -0.88181600      -1.06809800       4.40091700      -0.24931511      -0.35864161      -0.04065629      -0.24931511      -0.35864161      -0.04065629
H        0.00000000      -0.17897900       6.54013800       0.00008135      -0.00680113       0.44780275       0.00008135      -0.00680113       0.44780275
H       -0.88181600       1.06809800       5.65832100      -0.24834966       0.27429790       0.12544907      -0.24834966       0.27429790       0.12544907
H        0.88181600       1.06809800       5.65832100       0.24853535       0.27449665       0.12538577       0.24853535       0.27449665       0.12538577
80
Properties=species:S:1:pos:R:3:REF_forces:R:3:forces:R:3 REF_energy=-27839.182053797995 REF_dipole="-1.4754193560238129e-06 6.904460203256598e-07 8.915093659606252e-07" external_field="0.0 0.0 0.0" config_type=Linear_alkane energy=-27839.182053797995 free_energy=-27839.182053797995 dipole="-7.086741203870961e-06 3.316353578603593e-06 4.282101987882602e-06" pbc="F F F"
C        0.00000000      -0.44456000     -15.71755900       0.00036535       0.87911330       0.60959729       0.00036535       0.87911330       0.60959729
C        0.00000000       0.44456000     -14.46015400      -0.00062694      -1.66809509      -0.19187327      -0.00062694      -1.66809509      -0.19187327
C        0.00000000      -0.44456000     -13.20275000       0.00005590       1.96770499      -0.05444517       0.00005590       1.96770499      -0.05444517
C        0.00000000       0.44456000     -11.94534500       0.00023819      -1.97588779      -0.01261887       0.00023819      -1.97588779      -0.01261887
C        0.00000000      -0.44456000     -10.68794000       0.00098432       1.98641085      -0.00352961       0.00098432       1.98641085      -0.00352961
C        0.00000000       0.44456000      -9.43053600      -0.00189269      -1.99071138      -0.00326993      -0.00189269      -1.99071138      -0.00326993
C        0.00000000      -0.44456000      -8.17313100       0.00196170       1.99240651       0.00087232       0.00196170       1.99240651       0.00087232
C        0.00000000       0.44456000      -6.91572600      -0.00174002      -1.99239900      -0.00114399      -0.00174002      -1.99239900      -0.00114399
C        0.00000000      -0.44456000      -5.65832100      -0.00011796       1.99226057      -0.00131337      -0.00011796       1.99226057      -0.00131337
C        0.00000000       0.44456000      -4.40091700      -0.00005430      -1.99278724      -0.00349572      -0.00005430      -1.99278724      -0.00349572
C        0.00000000      -0.44456000      -3.14351200       0.00002180       1.99205889      -0.00062046       0.00002180       1.99205889      -0.00062046
C        0.00000000       0.44456000      -1.88610700       0.00010757      -1.99410045      -0.00184060       0.00010757      -1.99410045      -0.00184060
C        0.00000000      -0.44456000      -0.62870200      -0.00012064       1.99264182       0.00126411      -0.00012064       1.99264182       0.00126411
C        0.00000000       0.44456000       0.62870200      -0.00087968      -1.99393889       0.00328366      -0.00087968      -1.99393889       0.00328366
C        0.00000000      -0.44456000       1.88610700       0.00024148       1.99443279      -0.00250667       0.00024148       1.99443279      -0.00250667
C        0.00000000       0.44456000       3.14351200      -0.00102340      -1.99349640       0.00039513      -0.00102340      -1.99349640       0.00039513
C        0.00000000      -0.44456000       4.40091700       0.00142321       1.99327744       0.00151165       0.00142321       1.99327744       0.00151165
C        0.00000000       0.44456000       5.65832100      -0.00052584      -1.99400177       0.00108763      -0.00052584      -1.99400177       0.00108763
C        0.00000000      -0.44456000       6.91572600      -0.00017555       1.99301545      -0.00023366      -0.00017555       1.99301545      -0.00023366
C        0.00000000       0.44456000       8.17313100      -0.00009575      -1.99174491       0.00423594      -0.00009575      -1.99174491       0.00423594
C        0.00000000      -0.44456000       9.43053600      -0.00005317       1.99181752       0.00142958      -0.00005317       1.99181752       0.00142958
C        0.00000000       0.44456000      10.68794000       0.00036073      -1.98676396       0.00345906       0.00036073      -1.98676396       0.00345906
C        0.00000000      -0.44456000      11.94534500      -0.00023140       1.97504390       0.01224179      -0.00023140       1.97504390       0.01224179
C        0.00000000       0.44456000      13.20275000       0.00026673      -1.96707373       0.05466233       0.00026673      -1.96707373       0.05466233
C        0.00000000      -0.44456000      14.46015400      -0.00038531       1.66846816       0.19205525      -0.00038531       1.66846816       0.19205525
C        0.00000000       0.44456000      15.71755900      -0.00048224      -0.87930814      -0.60946905      -0.00048224      -0.87930814      -0.60946905
H        0.00000000       0.17897900     -16.59937500       0.00000509       0.00698425      -0.44788338       0.00000509       0.00698425      -0.44788338
H       -0.88181600      -1.06809800     -15.71755900      -0.24857689      -0.27471494      -0.12557115      -0.24857689      -0.27471494      -0.12557115
H        0.88181600      -1.06809800     -15.71755900       0.24851473      -0.27471319      -0.12551741       0.24851473      -0.27471319      -0.12551741
H       -0.88181600       1.06809800     -14.46015400      -0.24940253       0.35884175       0.04054969      -0.24940253       0.35884175       0.04054969
H        0.88181600       1.06809800     -14.46015400       0.24940145       0.35856345       0.04055180       0.24940145       0.35856345       0.04055180
H        0.88181600      -1.06809800     -13.20275000       0.28331944      -0.36375878      -0.00494511       0.28331944      -0.36375878      -0.00494511
H       -0.88181600      -1.06809800     -13.20275000      -0.28319649      -0.36353792      -0.00486808      -0.28319649      -0.36353792      -0.00486808
H       -0.88181600       1.06809800     -11.94534500      -0.27954136       0.35983358       0.00064422      -0.27954136       0.35983358       0.00064422
H        0.88181600       1.06809800     -11.94534500       0.27949045       0.35968877       0.00047961       0.27949045       0.35968877       0.00047961
H        0.88181600      -1.06809800     -10.68794000       0.28097922      -0.36087971       0.00056544       0.28097922      -0.36087971       0.00056544
H       -0.88181600      -1.06809800     -10.68794000      -0.28112881      -0.36101474       0.00076573      -0.28112881      -0.36101474       0.00076573
H       -0.88181600       1.06809800      -9.43053600      -0.28111421       0.36101700       0.00008695      -0.28111421       0.36101700       0.00008695
H        0.88181600       1.06809800      -9.43053600       0.28123001       0.36072313       0.00025937       0.28123001       0.36072313       0.00025937
H        0.88181600      -1.06809800      -8.17313100       0.28103126      -0.36097587       0.00003296       0.28103126      -0.36097587       0.00003296
H       -0.88181600      -1.06809800      -8.17313100      -0.28117957      -0.36121760      -0.00004654      -0.28117957      -0.36121760      -0.00004654
H       -0.88181600       1.06809800      -6.91572600      -0.28110850       0.36066466       0.00058703      -0.28110850       0.36066466       0.00058703
H        0.88181600       1.06809800      -6.91572600       0.28069322       0.36122439       0.00025552       0.28069322       0.36122439       0.00025552
H        0.88181600      -1.06809800      -5.65832100       0.28134098      -0.36100230       0.00009446       0.28134098      -0.36100230       0.00009446
H       -0.88181600      -1.06809800      -5.65832100      -0.28086301      -0.36098188       0.00032910      -0.28086301      -0.36098188       0.00032910
H       -0.88181600       1.06809800      -4.40091700      -0.28181509       0.36192512       0.00018209      -0.28181509       0.36192512       0.00018209
H        0.88181600       1.06809800      -4.40091700       0.28170932       0.36111131      -0.00019618       0.28170932       0.36111131      -0.00019618
H        0.88181600      -1.06809800      -3.14351200       0.28137353      -0.36076884       0.00068412       0.28137353      -0.36076884       0.00068412
H       -0.88181600      -1.06809800      -3.14351200      -0.28131028      -0.36132230       0.00009163      -0.28131028      -0.36132230       0.00009163
H       -0.88181600       1.06809800      -1.88610700      -0.28152065       0.36137038      -0.00012773      -0.28152065       0.36137038      -0.00012773
H        0.88181600       1.06809800      -1.88610700       0.28139178       0.36121560       0.00008120       0.28139178       0.36121560       0.00008120
H        0.88181600      -1.06809800      -0.62870200       0.28139497      -0.36077774      -0.00026333       0.28139497      -0.36077774      -0.00026333
H       -0.88181600      -1.06809800      -0.62870200      -0.28177622      -0.36089482       0.00068623      -0.28177622      -0.36089482       0.00068623
H       -0.88181600       1.06809800       0.62870200      -0.28117154       0.36090943      -0.00016188      -0.28117154       0.36090943      -0.00016188
H        0.88181600       1.06809800       0.62870200       0.28156431       0.36142838      -0.00013174       0.28156431       0.36142838      -0.00013174