36
Properties=species:S:1:pos:R:3:forces:R:3 external_field="0.0 0.0 0.0" config_type=Linear_cumulene_C32 energy=-33215.48745570114 free_energy=-33215.48745570114 dipole="3.016310100213894e-08 -2.0532075769877035e-07 9.488676562620236e-06" pbc="F F F"
C        0.00000000       0.00000000     -20.77000000       0.00007970       0.00008649       2.26517152
C        0.00000000       0.00000000     -19.43000000       0.00001610       0.00001172       2.38696047
C        0.00000000       0.00000000     -18.09000000      -0.00011621      -0.00009359      -0.24830395
C        0.00000000       0.00000000     -16.75000000       0.00002792       0.00002196       0.21161199
C        0.00000000       0.00000000     -15.41000000       0.00000262      -0.00006083      -0.08983235
C        0.00000000       0.00000000     -14.07000000      -0.00002808       0.00004942       0.06423516
C        0.00000000       0.00000000     -12.73000000       0.00003492      -0.00003903      -0.03650103
C        0.00000000       0.00000000     -11.39000000      -0.00000936       0.00004458       0.02983858
C        0.00000000       0.00000000     -10.05000000       0.00000067      -0.00002612      -0.01916917
C        0.00000000       0.00000000      -8.71000000      -0.00002088      -0.00005487       0.01631134
C        0.00000000       0.00000000      -7.37000000      -0.00001167       0.00024276      -0.01116404
C        0.00000000       0.00000000      -6.03000000       0.00007261      -0.00037939       0.01019849
C        0.00000000       0.00000000      -4.69000000      -0.00004577       0.00027989      -0.00848068
C        0.00000000       0.00000000      -3.35000000      -0.00002170      -0.00012501       0.00848253
C        0.00000000       0.00000000      -2.01000000       0.00000329       0.00007446      -0.00704323
C        0.00000000       0.00000000      -0.67000000       0.00002700      -0.00004391       0.00675465
C        0.00000000       0.00000000       0.67000000       0.00002838       0.00001980      -0.00657179
C        0.00000000       0.00000000       2.01000000      -0.00008865      -0.00000843       0.00666533
C        0.00000000       0.00000000       3.35000000       0.00004834      -0.00006171      -0.00814371
C        0.00000000       0.00000000       4.69000000      -0.00001640       0.00017890       0.00827011
C        0.00000000       0.00000000       6.03000000       0.00003821      -0.00022384      -0.01015648
C        0.00000000       0.00000000       7.37000000      -0.00001615       0.00014969       0.01116070
C        0.00000000       0.00000000       8.71000000       0.00000684      -0.00005317      -0.01625380
C        0.00000000       0.00000000      10.05000000      -0.00004443       0.00001250       0.01881770
C        0.00000000       0.00000000      11.39000000       0.00012058       0.00001116      -0.02937079
C        0.00000000       0.00000000      12.73000000      -0.00019345      -0.00001944       0.03637438
C        0.00000000       0.00000000      14.07000000       0.00014131       0.00001502      -0.06414728
C        0.00000000       0.00000000      15.41000000      -0.00006186      -0.00002813       0.08985693
C        0.00000000       0.00000000      16.75000000       0.00003209       0.00004854      -0.21185115
C        0.00000000       0.00000000      18.09000000       0.00000026      -0.00012645       0.24849596
C        0.00000000       0.00000000      19.43000000      -0.00001646      -0.00002412      -2.38717798
C        0.00000000       0.00000000      20.77000000       0.00000962       0.00012346      -2.26504332
H        0.00000000       0.93530700     -21.31000000       0.00000041       0.04589671      -0.07201892
H        0.00000000      -0.93530700     -21.31000000      -0.00000098      -0.04589620      -0.07201902
H        0.00000000       0.93530700      21.31000000       0.00000062       0.04588998       0.07202283
H        0.00000000      -0.93530700      21.31000000       0.00000057      -0.04589270       0.07202005
14
Properties=species:S:1:pos:R:3:forces:R:3 external_field="0.0 0.0 0.0" config_type=Linear_cumulene_C10 energy=-10425.09245260909 free_energy=-10425.09245260909 dipole="-6.932221458386318e-08 2.4395069406993076e-07 -1.075288091865725e-05" pbc="F F F"
C        0.00000000       0.00000000      -6.03000000       0.00009626       0.00004870       2.22195734
C        0.00000000       0.00000000      -4.69000000       0.00000252      -0.00008125       2.46199622
C        0.00000000       0.00000000      -3.35000000      -0.00010423       0.00003672      -0.33893488
C        0.00000000       0.00000000      -2.01000000       0.00000195       0.00000062       0.30739896
C        0.00000000       0.00000000      -0.67000000       0.00001198      -0.00002216      -0.21246734
C        0.00000000       0.00000000       0.67000000      -0.00001512       0.00004438       0.21247845
C        0.00000000       0.00000000       2.01000000      -0.00000350      -0.00004443      -0.30747640
C        0.00000000       0.00000000       3.35000000       0.00007287       0.00016676       0.33905037
C        0.00000000       0.00000000       4.69000000      -0.00001717      -0.00000715      -2.46190325
C        0.00000000       0.00000000       6.03000000      -0.00004782      -0.00014306      -2.22210014
H        0.00000000       0.93530700      -6.57000000       0.00000257       0.04057715      -0.08037804
H        0.00000000      -0.93530700      -6.57000000       0.00000062      -0.04057895      -0.08037593
H        0.00000000       0.93530700       6.57000000      -0.00000087       0.04059417       0.08037732
H        0.00000000      -0.93530700       6.57000000      -0.00000010      -0.04059150       0.08037732
30
Properties=species:S:1:pos:R:3:forces:R:3 external_field="0.0 0.0 0.0" config_type=Linear_cumulene_C26 energy=-26999.926519651184 free_energy=-26999.926519651184 dipole="1.7462847948606756e-08 -1.619282264325354e-07 4.8419714766591465e-06" pbc="F F F"
C        0.00000000       0.00000000     -16.75000000       0.00004849       0.00003286       2.25964190
C        0.00000000       0.00000000     -15.41000000       0.00000309      -0.00006479       2.39443662
C        0.00000000       0.00000000     -14.07000000      -0.00006052      -0.00001306      -0.25555034
C        0.00000000       0.00000000     -12.73000000       0.00000674       0.00009333       0.21828050
C        0.00000000       0.00000000     -11.39000000      -0.00001100      -0.00005703      -0.09598602
C        0.00000000       0.00000000     -10.05000000       0.00002833       0.00002360       0.07018007
C        0.00000000       0.00000000      -8.71000000      -0.00002021      -0.00004782      -0.04221896
C        0.00000000       0.00000000      -7.37000000       0.00001178       0.00002221       0.03492443
C        0.00000000       0.00000000      -6.03000000      -0.00000422       0.00001270      -0.02417521
C        0.00000000       0.00000000      -4.69000000      -0.00001008      -0.00008300       0.02130169
C        0.00000000       0.00000000      -3.35000000       0.00000267       0.00026585      -0.01674436
C        0.00000000       0.00000000      -2.01000000       0.00003965      -0.00038315       0.01567432
C        0.00000000       0.00000000      -0.67000000      -0.00004453       0.00027650      -0.01537576
C        0.00000000       0.00000000       0.67000000      -0.00001394      -0.00003574       0.01528511
C        0.00000000       0.00000000       2.01000000      -0.00000293      -0.00013349      -0.01557801
C        0.00000000       0.00000000       3.35000000       0.00004494       0.00015812       0.01665689
C        0.00000000       0.00000000       4.69000000      -0.00002525      -0.00005600      -0.02112095
C        0.00000000       0.00000000       6.03000000       0.00001358      -0.00000936       0.02386272
C        0.00000000       0.00000000       7.37000000       0.00004124       0.00001733      -0.03472630
C        0.00000000       0.00000000       8.71000000      -0.00013797      -0.00001491       0.04203970
C        0.00000000       0.00000000      10.05000000       0.00013961       0.00001178      -0.06981610
C        0.00000000       0.00000000      11.39000000      -0.00006906      -0.00003574       0.09595322
C        0.00000000       0.00000000      12.73000000       0.00001491       0.00005656      -0.21853715
C        0.00000000       0.00000000      14.07000000      -0.00000668      -0.00005631       0.25590274
C        0.00000000       0.00000000      15.41000000      -0.00001265       0.00002160      -2.39474397
C        0.00000000       0.00000000      16.75000000       0.00002263      -0.00000278      -2.25956677
H        0.00000000       0.93530700     -17.29000000      -0.00000041       0.04535992      -0.07283581
H        0.00000000      -0.93530700     -17.29000000      -0.00000010      -0.04535992      -0.07283617
H        0.00000000       0.93530700      17.29000000       0.00000046       0.04535473       0.07283622
H        0.00000000      -0.93530700      17.29000000       0.00000134      -0.04535406       0.07283576
8
Properties=species:S:1:pos:R:3:forces:R:3 external_field="0.0 0.0 0.0" config_type=Linear_cumulene_C04 energy=-4209.612086067759 free_energy=-4209.612086067759 dipole="-1.2012322679799193e-07 2.3707139033260083e-07 -1.45206226578718e-06" pbc="F F F"
C        0.00000000       0.00000000      -2.01000000      -0.00000046      -0.00000165       2.16860623
C        0.00000000       0.00000000      -0.67000000       0.00000113       0.00000149       2.65418388
C        0.00000000       0.00000000       0.67000000       0.00000175       0.00000339      -2.65418846
C        0.00000000       0.00000000       2.01000000      -0.00001296      -0.00000756      -2.16860175
H        0.00000000       0.93530700      -2.55000000       0.00000345       0.02067614      -0.09812158
H        0.00000000      -0.93530700      -2.55000000      -0.00000129      -0.02067630      -0.09812307
H        0.00000000       0.93530700       2.55000000       0.00000453       0.02067938       0.09812199
H        0.00000000      -0.93530700       2.55000000       0.00000386      -0.02067496       0.09812277
34
Properties=species:S:1:pos:R:3:forces:R:3 external_field="0.0 0.0 0.0" config_type=Linear_cumulene_C30 energy=-31143.634062384972 free_energy=-31143.634062384972 dipole="-1.1112721421840664e-08 -1.1006885979727897e-07 4.0138091421267355e-06" pbc="F F F"
C        0.00000000       0.00000000     -19.43000000       0.00007410      -0.00005327       2.26342008
C        0.00000000       0.00000000     -18.09000000       0.00003610       0.00000977       2.38929318
C        0.00000000       0.00000000     -16.75000000      -0.00010752       0.00003990      -0.25041678
C        0.00000000       0.00000000     -15.41000000       0.00001028       0.00002736       0.21347768
C        0.00000000       0.00000000     -14.07000000      -0.00002232      -0.00006392      -0.09149420
C        0.00000000       0.00000000     -12.73000000      -0.00001126       0.00006587       0.06593394
C        0.00000000       0.00000000     -11.39000000       0.00005070      -0.00005631      -0.03812910
C        0.00000000       0.00000000     -10.05000000      -0.00001764       0.00006618       0.03111914
C        0.00000000       0.00000000      -8.71000000      -0.00002813      -0.00004314      -0.02034288
C        0.00000000       0.00000000      -7.37000000      -0.00000679      -0.00008557       0.01759473
C        0.00000000       0.00000000      -6.03000000       0.00000422       0.00029398      -0.01250533
C        0.00000000       0.00000000      -4.69000000       0.00006716      -0.00037759       0.01164262
C        0.00000000       0.00000000      -3.35000000      -0.00004777       0.00020168      -0.00982583
C        0.00000000       0.00000000      -2.01000000      -0.00000381      -0.00007852       0.00915148
C        0.00000000       0.00000000      -0.67000000       0.00003183       0.00008135      -0.00813394
C        0.00000000       0.00000000       0.67000000      -0.00009225      -0.00002803       0.00816027
C        0.00000000       0.00000000       2.01000000       0.00008222      -0.00002982      -0.00881415
C        0.00000000       0.00000000       3.35000000      -0.00006366       0.00008490       0.00922640
C        0.00000000       0.00000000       4.69000000       0.00003193      -0.00012321      -0.01140531
C        0.00000000       0.00000000       6.03000000       0.00003620       0.00011097       0.01246497
C        0.00000000       0.00000000       7.37000000      -0.00002047      -0.00003656      -0.01745095
C        0.00000000       0.00000000       8.71000000       0.00001707      -0.00000920       0.01991386
C        0.00000000       0.00000000      10.05000000      -0.00003183       0.00001841      -0.03055510
C        0.00000000       0.00000000      11.39000000      -0.00002216      -0.00005194       0.03786695
C        0.00000000       0.00000000      12.73000000       0.00004366       0.00005384      -0.06589435
C        0.00000000       0.00000000      14.07000000      -0.00001939      -0.00003378       0.09158095
C        0.00000000       0.00000000      15.41000000      -0.00000381       0.00003867      -0.21366414
C        0.00000000       0.00000000      16.75000000      -0.00002484      -0.00009678       0.25063501
C        0.00000000       0.00000000      18.09000000       0.00002083       0.00001738      -2.38954921
C        0.00000000       0.00000000      19.43000000       0.00001738       0.00005296      -2.26330634
H        0.00000000       0.93530700     -19.97000000      -0.00000123       0.04576713      -0.07226297
H        0.00000000      -0.93530700     -19.97000000      -0.00000046      -0.04576456      -0.07226395
H        0.00000000       0.93530700      19.97000000       0.00000062       0.04576070       0.07226744
H        0.00000000      -0.93530700      19.97000000       0.00000103      -0.04575890       0.07226569
10
Properties=species:S:1:pos:R:3:forces:R:3 external_field="0.0 0.0 0.0" config_type=Linear_cumulene_C06 energy=-6281.410410951785 free_energy=-6281.410410951785 dipole="-5.984994251477043e-07 -4.76259489507457e-08 2.77870953267073e-06" pbc="F F F"
C        0.00000000       0.00000000      -3.35000000       0.00000715      -0.00000339       2.19727033
C        0.00000000       0.00000000      -2.01000000       0.00000036       0.00000360       2.55072242
C        0.00000000       0.00000000      -0.67000000      -0.00000334      -0.00001193      -0.55319747
C        0.00000000       0.00000000       0.67000000      -0.00000458       0.00001769       0.55317232
C        0.00000000       0.00000000       2.01000000       0.00000509      -0.00000226      -2.55067105
C        0.00000000       0.00000000       3.35000000      -0.00000108      -0.00000375      -2.19729635
H        0.00000000       0.93530700      -3.89000000      -0.00000175       0.03379237      -0.08830866
H        0.00000000      -0.93530700      -3.89000000      -0.00000072      -0.03378949      -0.08830825
H        0.00000000       0.93530700       3.89000000      -0.00000015       0.03379088       0.08830732
H        0.00000000      -0.93530700       3.89000000      -0.00000103      -0.03379371       0.08830938
42
Properties=species:S:1:pos:R:3:forces:R:3 external_field="0.0 0.0 0.0" config_type=Linear_cumulene_C38 energy=-39431.047143650474 free_energy=-39431.047143650474 dipole="-6.932221458386318e-08 -2.1008335259384495e-07 9.38178276608634e-06" pbc="F F F"
C        0.00000000       0.00000000     -24.79000000       0.00003995       0.00004273       2.26873800
C        0.00000000       0.00000000     -23.45000000      -0.00004438      -0.00002149       2.38020376
C        0.00000000       0.00000000     -22.11000000       0.00000216      -0.00002468      -0.24131718
C        0.00000000       0.00000000     -20.77000000      -0.00000226       0.00002669       0.20656208
C        0.00000000       0.00000000     -19.43000000       0.00001651      -0.00004957      -0.08498787
C        0.00000000       0.00000000     -18.09000000      -0.00001476       0.00000797       0.05974889
C        0.00000000       0.00000000     -16.75000000      -0.00002129       0.00002998      -0.03196077
C        0.00000000       0.00000000     -15.41000000       0.00003224      -0.00001018       0.02460592
C        0.00000000       0.00000000     -14.07000000      -0.00000211      -0.00002700      -0.01421599
C        0.00000000       0.00000000     -12.73000000       0.00003162      -0.00000854       0.01273339
C        0.00000000       0.00000000     -11.39000000      -0.00007497       0.00021500      -0.00790635
C        0.00000000       0.00000000     -10.05000000       0.00006711      -0.00033764       0.00746777
C        0.00000000       0.00000000      -8.71000000      -0.00003677       0.00022523      -0.00539680
C        0.00000000       0.00000000      -7.37000000       0.00000021      -0.00007883       0.00532429
C        0.00000000       0.00000000      -6.03000000       0.00002011      -0.00000129      -0.00397349
C        0.00000000       0.00000000      -4.69000000      -0.00001882       0.00006896       0.00398511
C        0.00000000       0.00000000      -3.35000000       0.00002592      -0.00013015      -0.00322046
C        0.00000000       0.00000000      -2.01000000      -0.00001224       0.00013041       0.00335092
C        0.00000000       0.00000000      -0.67000000      -0.00001882      -0.00007883      -0.00347531
C        0.00000000       0.00000000       0.67000000       0.00004443      -0.00001532       0.00343849
C        0.00000000       0.00000000       2.01000000      -0.00007698       0.00007081      -0.00347212
C        0.00000000       0.00000000       3.35000000       0.00006808      -0.00006752       0.00343633
C        0.00000000       0.00000000       4.69000000      -0.00003702       0.00004474      -0.00405689
C        0.00000000       0.00000000       6.03000000       0.00005045      -0.00001615       0.00402429
C        0.00000000       0.00000000       7.37000000      -0.00005152      -0.00001394      -0.00543449
C        0.00000000       0.00000000       8.71000000       0.00003276       0.00008870       0.00548925
C        0.00000000       0.00000000      10.05000000      -0.00005322      -0.00014856      -0.00748983
C        0.00000000       0.00000000      11.39000000       0.00005250       0.00013534       0.00790270
C        0.00000000       0.00000000      12.73000000      -0.00003805      -0.00003543      -0.01274126
C        0.00000000       0.00000000      14.07000000      -0.00000082      -0.00005914       0.01437951
C        0.00000000       0.00000000      15.41000000       0.00006947       0.00001394      -0.02476584
C        0.00000000       0.00000000      16.75000000      -0.00006690       0.00005800       0.03192935
C        0.00000000       0.00000000      18.09000000       0.00002741      -0.00002905      -0.05970544
C        0.00000000       0.00000000      19.43000000      -0.00002561      -0.00002957       0.08505765
C        0.00000000       0.00000000      20.77000000       0.00000334       0.00008886      -0.20678099
C        0.00000000       0.00000000      22.11000000       0.00003579      -0.00005194       0.24158776
C        0.00000000       0.00000000      23.45000000      -0.00002283      -0.00004664      -2.38017024
C        0.00000000       0.00000000      24.79000000       0.00000005       0.00003420      -2.26889880
H        0.00000000       0.93530700     -25.33000000      -0.00000072       0.04634095      -0.07152182
H        0.00000000      -0.93530700     -25.33000000      -0.00000072      -0.04634131      -0.07152115
H        0.00000000       0.93530700      25.33000000       0.00000041       0.04633673       0.07152465
H        0.00000000      -0.93530700      25.33000000       0.00000026      -0.04633648       0.07152285
32
Properties=species:S:1:pos:R:3:forces:R:3 external_field="0.0 0.0 0.0" config_type=Linear_cumulene_C28 energy=-29071.78010882231 free_energy=-29071.78010882231 dipole="1.4816961895787552e-08 -1.8679955532903594e-07 7.636027148436228e-07" pbc="F F F"
C        0.00000000       0.00000000     -18.09000000      -0.00000113       0.00005528       2.26171087
C        0.00000000       0.00000000     -16.75000000       0.00005888      -0.00000082       2.39149009
C        0.00000000       0.00000000     -15.41000000      -0.00007343      -0.00003841      -0.25258663
C        0.00000000       0.00000000     -14.07000000       0.00002160       0.00000818       0.21559725
C        0.00000000       0.00000000     -12.73000000      -0.00001208      -0.00006094      -0.09346557
C        0.00000000       0.00000000     -11.39000000       0.00000663       0.00008881       0.06728454
C        0.00000000       0.00000000     -10.05000000      -0.00004093      -0.00009451      -0.03951452
C        0.00000000       0.00000000      -8.71000000       0.00007024       0.00004294       0.03271693
C        0.00000000       0.00000000      -7.37000000      -0.00003142       0.00000190      -0.02154446
C        0.00000000       0.00000000      -6.03000000      -0.00002263      -0.00007394       0.01900745
C        0.00000000       0.00000000      -4.69000000      -0.00000607       0.00018363      -0.01440821
C        0.00000000       0.00000000      -3.35000000       0.00007060      -0.00018712       0.01329569
C        0.00000000       0.00000000      -2.01000000      -0.00002936       0.00009328      -0.01153495
C        0.00000000       0.00000000      -0.67000000      -0.00002432      -0.00002916       0.01053900
C        0.00000000       0.00000000       0.67000000       0.00002705       0.00001023      -0.01050177
C        0.00000000       0.00000000       2.01000000      -0.00005260       0.00001543       0.01138680
C        0.00000000       0.00000000       3.35000000       0.00001568      -0.00005404      -0.01301189
C        0.00000000       0.00000000       4.69000000       0.00005045       0.00006639       0.01415886
C        0.00000000       0.00000000       6.03000000      -0.00003342      -0.00001106      -0.01896837
C        0.00000000       0.00000000       7.37000000       0.00000561      -0.00000848       0.02131126
C        0.00000000       0.00000000       8.71000000       0.00000900       0.00003147      -0.03219890
C        0.00000000       0.00000000      10.05000000      -0.00003044      -0.00008310       0.03944546
C        0.00000000       0.00000000      11.39000000       0.00001630       0.00008330      -0.06743336
C        0.00000000       0.00000000      12.73000000      -0.00001100      -0.00006772       0.09350897
C        0.00000000       0.00000000      14.07000000       0.00002617       0.00005698      -0.21578792
C        0.00000000       0.00000000      15.41000000      -0.00003733      -0.00002437       0.25280975
C        0.00000000       0.00000000      16.75000000       0.00000679       0.00004695      -2.39159720
C        0.00000000       0.00000000      18.09000000       0.00001815      -0.00005240      -2.26171447
H        0.00000000       0.93530700     -18.63000000       0.00000098       0.04557075      -0.07252378
H        0.00000000      -0.93530700     -18.63000000       0.00000057      -0.04557142      -0.07252301
H        0.00000000       0.93530700      18.63000000       0.00000077       0.04556782       0.07252584
H        0.00000000      -0.93530700      18.63000000       0.00000067      -0.04556581       0.07252625
18
Properties=species:S:1:pos:R:3:forces:R:3 external_field="0.0 0.0 0.0" config_type=Linear_cumulene_C14 energy=-14568.798916663667 free_energy=-14568.798916663667 dipole="-2.471257573333138e-07 -1.1006885979727897e-07 -8.619238405663844e-06" pbc="F F F"
C        0.00000000       0.00000000      -8.71000000       0.00004690      -0.00014383       2.23729078
C        0.00000000       0.00000000      -7.37000000      -0.00004767       0.00003260       2.42901020
C        0.00000000       0.00000000      -6.03000000       0.00004325       0.00009960      -0.29383484
C        0.00000000       0.00000000      -4.69000000      -0.00008947       0.00004319       0.25629807
C        0.00000000       0.00000000      -3.35000000       0.00008433      -0.00008953      -0.13751217
C        0.00000000       0.00000000      -2.01000000      -0.00003543       0.00006063       0.11414043
C        0.00000000       0.00000000      -0.67000000       0.00000051      -0.00001450      -0.09640090
C        0.00000000       0.00000000       0.67000000      -0.00004227      -0.00000668       0.09634865
C        0.00000000       0.00000000       2.01000000       0.00005749       0.00007194      -0.11404000
C        0.00000000       0.00000000       3.35000000      -0.00007544      -0.00009642       0.13761502
C        0.00000000       0.00000000       4.69000000       0.00010660       0.00007477      -0.25641444
C        0.00000000       0.00000000       6.03000000      -0.00001183      -0.00006109       0.29413664
C        0.00000000       0.00000000       7.37000000      -0.00003625       0.00008377      -2.42928412
C        0.00000000       0.00000000       8.71000000      -0.00000123      -0.00005775      -2.23735763
H        0.00000000       0.93530700      -9.25000000       0.00000005       0.04292956      -0.07679443
H        0.00000000      -0.93530700      -9.25000000       0.00000005      -0.04292637      -0.07679320
H        0.00000000       0.93530700       9.25000000      -0.00000041       0.04292812       0.07679562
H        0.00000000      -0.93530700       9.25000000       0.00000082      -0.04292807       0.07679623
24
Properties=species:S:1:pos:R:3:forces:R:3 external_field="0.0 0.0 0.0" config_type=Linear_cumulene_C20 energy=-20784.363310278695 free_energy=-20784.363310278695 dipole="-3.704240473946888e-09 -3.4396518686649674e-07 -2.9390502274715737e-06" pbc="F F F"
C        0.00000000       0.00000000     -12.73000000       0.00000632      -0.00006474       2.25123120
C        0.00000000       0.00000000     -11.39000000      -0.00000941      -0.00002926       2.40681026
C        0.00000000       0.00000000     -10.05000000      -0.00000417       0.00008089      -0.26821467
C        0.00000000       0.00000000      -8.71000000       0.00001008       0.00001491       0.22975169
C        0.00000000       0.00000000      -7.37000000       0.00002957      -0.00004916      -0.10698736
C        0.00000000       0.00000000      -6.03000000      -0.00007513       0.00008901       0.07990532
C        0.00000000       0.00000000      -4.69000000       0.00004021      -0.00004983      -0.05262565
C        0.00000000       0.00000000      -3.35000000      -0.00001419       0.00000247       0.04622073
C        0.00000000       0.00000000      -2.01000000       0.00007909      -0.00003085      -0.03739186
C        0.00000000       0.00000000      -0.67000000      -0.00011364      -0.00001728       0.03585388
C        0.00000000       0.00000000       0.67000000       0.00001640       0.00012388      -0.03590438
C        0.00000000       0.00000000       2.01000000       0.00005235      -0.00003615       0.03736847
C        0.00000000       0.00000000       3.35000000      -0.00001502      -0.00007466      -0.04600840
C        0.00000000       0.00000000       4.69000000      -0.00002062       0.00003152       0.05243637
C        0.00000000       0.00000000       6.03000000      -0.00001383       0.00004751      -0.07985652
C        0.00000000       0.00000000       7.37000000       0.00002273      -0.00002643       0.10703601
C        0.00000000       0.00000000       8.71000000       0.00002201      -0.00000365      -0.22989279
C        0.00000000       0.00000000      10.05000000      -0.00002751      -0.00001687       0.26835763
C        0.00000000       0.00000000      11.39000000       0.00002026      -0.00000504      -2.40694082
C        0.00000000       0.00000000      12.73000000      -0.00000627       0.00001106      -2.25115782
H        0.00000000       0.93530700     -13.27000000       0.00000046       0.04451979      -0.07416929
H        0.00000000      -0.93530700     -13.27000000       0.00000036      -0.04451860      -0.07416867
H        0.00000000       0.93530700      13.27000000      -0.00000036       0.04451680       0.07417376
H        0.00000000      -0.93530700      13.27000000       0.00000021      -0.04451536       0.07417294
38
Properties=species:S:1:pos:R:3:forces:R:3 external_field="0.0 0.0 0.0" config_type=Linear_cumulene_C34 energy=-35287.34082517967 free_energy=-35287.34082517967 dipole="-3.439651868664967e-08 -1.4340702406280094e-07 8.040318537307003e-06" pbc="F F F"
C        0.00000000       0.00000000     -22.11000000       0.00000447       0.00010002       2.26646484
C        0.00000000       0.00000000     -20.77000000      -0.00000848      -0.00004721       2.38456369
C        0.00000000       0.00000000     -19.43000000      -0.00005590      -0.00005142      -0.24568168
C        0.00000000       0.00000000     -18.09000000       0.00008803       0.00002422       0.20974393
C        0.00000000       0.00000000     -16.75000000       0.00000350      -0.00002592      -0.08821677
C        0.00000000       0.00000000     -15.41000000      -0.00007014       0.00001712       0.06263064
C        0.00000000       0.00000000     -14.07000000       0.00002535      -0.00006289      -0.03528675
C        0.00000000       0.00000000     -12.73000000       0.00000154       0.00005404       0.02847785
C        0.00000000       0.00000000     -11.39000000       0.00002093       0.00001496      -0.01722881
C        0.00000000       0.00000000     -10.05000000      -0.00000715      -0.00010207       0.01506723
C        0.00000000       0.00000000      -8.71000000      -0.00002561       0.00016974      -0.01016537